
2 atoms
1 atom types
   0.0000000000    4.0000000000 xlo xhi
   0.0000000000    4.0000000000 ylo yhi
   0.0000000000    3.3800000000 zlo zhi
   0.0000000000    0.0000000000    0.0000000000 xy xz yz

Atoms # atomic

     1      1    0.0000000000    0.0000000000    0.0000000000
     2      1    2.0000000000    2.0000000000    1.6900000000
